[
  {
    "wikilink": "https://en.wikipedia.org/wiki/Francium",
    "link": "http://www.chemistrylearner.com/wp-content/uploads/2018/02/Francium.jpg",
    "description": "Francium is a chemical element with the symbol Fr and atomic number 87. Prior to its discovery, it was referred to as eka-caesium. It is extremely radioactive; its most stable isotope, francium-223 (originally called actinium K after the natural decay chain it appears in), has a half-life of only 22 minutes. It is the second-most electropositive element, behind only caesium, and is the second rarest naturally occurring element (after astatine). The isotopes of francium decay quickly into astatine, radium, and radon. The electronic structure of a francium atom is [Rn] 7s^1, and so the element is classed as an alkali metal.",

    "element": "Francium",
    "short": "Fr",
    "element_year": "Marguerite Perey",
    "element_discovered_name": "1939",
    "element_group": "Alkali metals",
    "element_appearance": "---",
    "element_electrons": "87",
    "element_protons": "87",
    "element_neutron_common": "136",

    "radioactive": "Yes",
    "neutron_cross_sectional": "--- (b)",

    "electrical_type": "---",
    "resistivity": "---",
    "resistivity_mult": "---",
    "magnetic_type": "---",
    "superconducting_point": "---",

    "element_atomic_number": "87",
    "element_atomicmass": "223 (u)",
    "element_density": "1.87 (g/cm^3)",
    "element_electronegativty": "0.79",
    "element_block": "s - block",
    "element_shells_electrons": "K2 L8 M18 N32 O18 P8 Q1 R0",
    "element_model": "https://upload.wikimedia.org/wikipedia/commons/thumb/f/fa/Electron_shell_087_Francium_-_no_label.svg/800px-Electron_shell_087_Francium_-_no_label.svg.png",

    "element_boiling_kelvin": "890 (K)",
    "element_boiling_celsius": "620 (°C)",
    "element_boiling_fahrenheit": "1150 (°F)",
    "element_melting_kelvin": "281.0 (K)",
    "element_melting_celsius": "8.0 (°C)",
    "element_melting_fahrenheit": "46.4 (°F)",

    "element_electron_config": "7s^1",
    "element_ion_charge": "Fr+",
    "element_ionization_energy1": "4.0727 (eV)",
    "element_atomic_radius_e": "--- (pm)",
    "element_atomic_radius": "--- (pm)",
    "element_covalent_radius": "---",
    "element_van_der_waals": "348 (pm)",

    "element_phase": "Solid",
    "element_fusion_heat": "2 (kJ/mol)",
    "element_specific_heat_capacity": "--- J/(g·K)",
    "element_vaporization_heat": "65 (kJ/mol)",

    "oxidation_state_neg": "",
    "oxidation_state_pos": "1",

    "iso_1": "Fr-221",
    "iso_mass_1": "221.014255",
    "iso_half_1": "4.9 (min)",
    "iso_Z_1": "87",
    "iso_N_1": "134",
    "iso_A_1": "221",

    "iso_2": "Fr-222",
    "iso_mass_2": "222.017552",
    "iso_half_2": "14.2 (min)",
    "iso_Z_2": "87",
    "iso_N_2": "135",
    "iso_A_2": "222",

    "iso_3": "Fr-223",
    "iso_mass_3": "223.0197359",
    "iso_half_3": "22.00 (min)",
    "iso_Z_3": "87",
    "iso_N_3": "136",
    "iso_A_3": "223",

    "iso_4": "Fr-224",
    "iso_mass_4": "224.02325",
    "iso_half_4": "3.33 (min)",
    "iso_Z_4": "87",
    "iso_N_4": "137",
    "iso_A_4": "224",

    "iso_5": "Fr-225",
    "iso_mass_5": "225.02557",
    "iso_half_5": "4.0 (min)",
    "iso_Z_5": "87",
    "iso_N_5": "138",
    "iso_A_5": "225",

    "iso_6": "Fr-226",
    "iso_mass_6": "226.02939",
    "iso_half_6": "49 (s)",
    "iso_Z_6": "87",
    "iso_N_6": "139",
    "iso_A_6": "226"
  }
]