[
  {
    "wikilink": "https://en.wikipedia.org/wiki/Iodine",
    "link": "https://upload.wikimedia.org/wikipedia/commons/thumb/0/0a/Sample_of_iodine.jpg/1920px-Sample_of_iodine.jpg",
    "description": "Iodine is a chemical element with the symbol I and atomic number 53. The heaviest of the stable halogens, it exists as a lustrous, purple-black non-metallic solid at standard conditions that melts to form a deep violet liquid at 114 degrees Celsius, and boils to a violet gas at 184 degrees Celsius. However, it sublimes easily with gentle heat, resulting in a widespread misconception even taught in some science textbooks that it does not melt. The element was discovered by the French chemist Bernard Courtois in 1811, and was named two years later by Joseph Louis Gay-Lussac, after the Greek ἰώδης \"violet-coloured\".",

    "element": "Iodine",
    "short": "I",
    "element_year": "1811",
    "element_discovered_name": "Bernard Courtois",
    "element_group": "Halogens",
    "element_appearance": "Lustrous Metallic Gray",
    "element_electrons": "53",
    "element_protons": "53",
    "element_neutron_common": "74",

    "radioactive": "No",
    "neutron_cross_sectional": "6.2 (b)",

    "electrical_type": "Insulator",
    "resistivity": "1",
    "resistivity_mult": "10000000",
    "magnetic_type": "Diamagnetic",
    "superconducting_point": "---",

    "element_atomic_number": "53",
    "element_atomicmass": "126.9045 (u)",
    "element_density": "4.933 (g/cm^3)",
    "element_electronegativty": "2.66",
    "element_block": "p - block",
    "element_shells_electrons": "K2 L8 18 N18 O7 P0 Q0 R0",
    "element_model": "https://upload.wikimedia.org/wikipedia/commons/thumb/5/5e/Electron_shell_053_Iodine_%28diatomic_nonmetal%29_-_no_label.svg/1280px-Electron_shell_053_Iodine_%28diatomic_nonmetal%29_-_no_label.svg.png",

    "element_boiling_kelvin": "457.4 (K)",
    "element_boiling_celsius": "184.3 (°C)",
    "element_boiling_fahrenheit": "363.7 (°F)",
    "element_melting_kelvin": "386.85 (K)",
    "element_melting_celsius": "113.7 (°C)",
    "element_melting_fahrenheit": "236.66 (°F)",

    "element_electron_config": "4d^10 5s^2 5p^5",
    "element_ion_charge": "I^-",
    "element_ionization_energy1": "10.45126 (eV)",
    "element_ionization_energy2": "19.1313 (eV)",
    "element_ionization_energy3": "33 (eV)",
    "element_atomic_radius_e": "140 (pm)",
    "element_atomic_radius": "115 (pm)",
    "element_covalent_radius": "133 (pm)",
    "element_van_der_waals": "198",

    "element_phase": "Solid",
    "element_fusion_heat": "15.52 (I2) (kJ/mol)",
    "element_specific_heat_capacity": "0.214 (I2) J/(g·K)",
    "element_vaporization_heat": "41.57 (I2) (kJ/mol)",

    "oxidation_state_neg": "1",
    "oxidation_state_pos": "1 3 4 5 6 7",

    "iso_1": "I-125",
    "iso_mass_1": "124.9046302",
    "iso_half_1": "59.4 (days)",
    "iso_Z_1": "53",
    "iso_N_1": "72",
    "iso_A_1": "125",

    "iso_2": "I-126",
    "iso_mass_2": "125.905624",
    "iso_half_2": "12.93 (days)",
    "iso_Z_2": "53",
    "iso_N_2": "73",
    "iso_A_2": "126",

    "iso_3": "I-127",
    "iso_mass_3": "126.904473",
    "iso_half_3": "Stable",
    "iso_Z_3": "53",
    "iso_N_3": "74",
    "iso_A_3": "127",

    "iso_4": "I-128",
    "iso_mass_4": "127.905809",
    "iso_half_4": "24.99 (min)",
    "iso_Z_4": "53",
    "iso_N_4": "75",
    "iso_A_4": "128",

    "iso_5": "I-129",
    "iso_mass_5": "128.904988",
    "iso_half_5": "1.57×10^7 (Years)",
    "iso_Z_5": "53",
    "iso_N_5": "76",
    "iso_A_5": "129",

    "iso_6": "I-130",
    "iso_mass_6": "129.906674",
    "iso_half_6": "12.36 (h)",
    "iso_Z_6": "53",
    "iso_N_6": "77",
    "iso_A_6": "130",

    "iso_7": "I-131",
    "iso_mass_7": "130.9061246",
    "iso_half_7": "8.02070 (days)",
    "iso_Z_7": "53",
    "iso_N_7": "78",
    "iso_A_7": "131",

    "iso_8": "I-132",
    "iso_mass_8": "131.907997",
    "iso_half_8": "2.295 (hours)",
    "iso_Z_8": "53",
    "iso_N_8": "79",
    "iso_A_8": "132",

    "iso_9": "I-133",
    "iso_mass_9": "132.907797",
    "iso_half_9": "20.8 (hours)",
    "iso_Z_9": "53",
    "iso_N_9": "80",
    "iso_A_9": "133"
  }
]