[
  {
    "wikilink": "https://en.wikipedia.org/wiki/Iridium",
    "link": "https://upload.wikimedia.org/wikipedia/commons/a/a8/Iridium-2.jpg",
    "description": "Iridium is a chemical element with the symbol Ir and atomic number 77. A very hard, brittle, silvery-white transition metal of the platinum group, iridium is considered to be the second-densest metal (after osmium) with a density of 22.56 g/cm3 as defined by experimental X-ray crystallography. However, at room temperature and standard atmospheric pressure, iridium has been calculated to have a density of 22.65 g/cm3, 0.04 g/cm3 higher than osmium measured the same way. Still, the experimental X-ray crystallography value is considered to be the most accurate, as such iridium is considered to be the second densest element. It is the most corrosion-resistant metal, even at temperatures as high as 2000°C. Although only certain molten salts and halogens are corrosive to solid iridium, finely divided iridium dust is much more reactive and can be flammable.",

    "element": "Iridium",
    "short": "Ir",
    "element_year": "1803",
    "element_discovered_name": "Smithson Tennant",
    "element_group": "Transition Metals",
    "element_appearance": "Silvery white",
    "element_electrons": "77",
    "element_protons": "77",
    "element_neutron_common": "116",

    "radioactive": "No",
    "neutron_cross_sectional": "425 (b)",

    "electrical_type": "Conductor",
    "resistivity": "4.7",
    "resistivity_mult": "0.00000001",
    "magnetic_type": "Paramagnetic",
    "superconducting_point": "0.11",

    "element_atomic_number": "77",
    "element_atomicmass": "192.217 (u)",
    "element_density": "22.56 (g/cm^3)",
    "element_electronegativty": "2.2",
    "element_block": "d - block",
    "element_shells_electrons": "K2 L8 M8 N32 O15 P2 Q0 R0",
    "element_model": "https://upload.wikimedia.org/wikipedia/commons/thumb/5/5c/Electron_shell_077_Iridium_-_no_label.svg/800px-Electron_shell_077_Iridium_-_no_label.svg.png",

    "element_boiling_kelvin": "4403 (K)",
    "element_boiling_celsius": "4130 (°C)",
    "element_boiling_fahrenheit": "7466 (°F)",
    "element_melting_kelvin": "2719 (K)",
    "element_melting_celsius": "2446 (°C)",
    "element_melting_fahrenheit": "4435 (°F)",

    "element_electron_config": "4f^14, 5d^7, 6s^2",
    "element_ion_charge": "Ir^4+",
    "element_ionization_energy1": "8.9670 (eV)",
    "element_atomic_radius_e": "135 (pm)",
    "element_atomic_radius": "180 (pm)",
    "element_covalent_radius": "137 (pm)",
    "element_van_der_waals": "--- (pm)",

    "element_phase": "Solid",
    "element_fusion_heat": "41.12 (kJ/mol)",
    "element_specific_heat_capacity": "0.131 J/(g·K)",
    "element_vaporization_heat": "564 (kJ/mol)",

    "oxidation_state_neg": "3 1 0",
    "oxidation_state_pos": "1 2 3 4 5 6 7 8 9",

    "iso_1": "Ir-190",
    "iso_mass_1": "189.9605460",
    "iso_half_1": "11.78 (days)",
    "iso_Z_1": "77",
    "iso_N_1": "113",
    "iso_A_1": "190",

    "iso_2": "Ir-191",
    "iso_mass_2": "190.9605940",
    "iso_half_2": "Stable",
    "iso_Z_2": "77",
    "iso_N_2": "114",
    "iso_A_2": "191",

    "iso_3": "Ir-192",
    "iso_mass_3": "191.9626050",
    "iso_half_3": "73.827 (days)",
    "iso_Z_3": "77",
    "iso_N_3": "115",
    "iso_A_3": "192",

    "iso_4": "Ir-193",
    "iso_mass_4": "192.9629264",
    "iso_half_4": "Stable",
    "iso_Z_4": "77",
    "iso_N_4": "116",
    "iso_A_4": "193"
  }
]