[
  {
    "wikilink": "https://en.wikipedia.org/wiki/Neodymium",
    "link": "https://upload.wikimedia.org/wikipedia/commons/b/ba/Neodymium2.jpg",
    "description": "Neodymium is a chemical element with the symbol Nd and atomic number 60. Neodymium belongs to the lanthanide series and is a rare-earth element. It is a hard, slightly malleable silvery metal that quickly tarnishes in air and moisture. When oxidized, neodymium reacts quickly to produce pink, purple/blue and yellow compounds in the +2, +3 and +4 oxidation states. Neodymium was discovered in 1885 by the Austrian chemist Carl Auer von Welsbach. It is present in significant quantities in the ore minerals monazite and bastnäsite. Neodymium is not found naturally in metallic form or unmixed with other lanthanides, and it is usually refined for general use. Although neodymium is classed as a rare-earth element, it is fairly common, no rarer than cobalt, nickel, or copper, and is widely distributed in the Earth's crust. Most of the world's commercial neodymium is mined in China.",

    "element": "Neodymium",
    "short": "Nd",
    "element_year": "1885",
    "element_discovered_name": "Carl Auer von Welsbach",
    "element_group": "Lanthanoids",
    "element_appearance": "Silvery White",
    "element_electrons": "60",
    "element_protons": "60",
    "element_neutron_common": "82",

    "radioactive": "No",
    "neutron_cross_sectional": "49 (b)",

    "electrical_type": "Conductor",
    "resistivity": "6.4",
    "resistivity_mult": "0.0000001",
    "magnetic_type": "Paramagnetic",
    "superconducting_point": "---",

    "element_atomic_number": "60",
    "element_atomicmass": "144.242 (u)",
    "element_density": "7.01 (g/cm^3)",
    "element_electronegativty": "1.14",
    "element_block": "f - block",
    "element_shells_electrons": "K2 L8 18 N22 O8 P2 Q0 R0",
    "element_model": "https://upload.wikimedia.org/wikipedia/commons/thumb/b/b3/Electron_shell_060_Neodymium_-_no_label.svg/800px-Electron_shell_060_Neodymium_-_no_label.svg.png",

    "element_boiling_kelvin": "3347 (K)",
    "element_boiling_celsius": "3074 (°C)",
    "element_boiling_fahrenheit": "5565 (°F)",
    "element_melting_kelvin": "1297 (K)",
    "element_melting_celsius": "1024 (°C)",
    "element_melting_fahrenheit": "1875 (°F)",

    "element_electron_config": "4f^4 6s^2",
    "element_ion_charge": "Nd^3+",
    "element_ionization_energy1": "5.5250 (eV)",
    "element_ionization_energy2": "10.73 (eV)",
    "element_ionization_energy3": "22.1 (eV)",
    "element_ionization_energy4": "40.41 (eV)",
    "element_atomic_radius": "206 (pm)",
    "element_atomic_radius_e": "185 (pm)",
    "element_covalent_radius": "--- (pm)",
    "element_van_der_waals": "---",

    "element_phase": "Solid",
    "element_fusion_heat": "7.14 (kJ/mol)",
    "element_specific_heat_capacity": "0.190 J/(g·K)",
    "element_vaporization_heat": "289 (kJ/mol)",

    "oxidation_state_neg": "0",
    "oxidation_state_pos": "2 3 4",

    "iso_1": "Nd-144",
    "iso_mass_1": "143.9100873",
    "iso_half_1": "2.29×10^15 (years)",
    "iso_Z_1": "60",
    "iso_N_1": "84",
    "iso_A_1": "144",

    "iso_2": "Nd-145",
    "iso_mass_2": "144.9125736",
    "iso_half_2": "Stable",
    "iso_Z_2": "60",
    "iso_N_2": "85",
    "iso_A_2": "145"
  }
]