[
  {
    "wikilink": "https://en.wikipedia.org/wiki/Polonium",
    "link": "https://upload.wikimedia.org/wikipedia/en/6/66/Polonium.jpg",
    "description": "Polonium is a chemical element with the symbol Po and atomic number 84. A rare and highly radioactive metal with no stable isotopes, polonium is chemically similar to selenium and tellurium, though its metallic character resembles that of its horizontal neighbors in the periodic table: thallium, lead, and bismuth. Due to the short half-life of all its isotopes, its natural occurrence is limited to tiny traces of the fleeting polonium-210 (with a half-life of 138 days) in uranium ores, as it is the penultimate daughter of natural uranium-238. Though slightly longer-lived isotopes exist, they are much more difficult to produce. Today, polonium is usually produced in milligram quantities by the neutron irradiation of bismuth. Due to its intense radioactivity, which results in the radiolysis of chemical bonds and radioactive self-heating, its chemistry has mostly been investigated on the trace scale only.",

    "element": "Polonium",
    "short": "Po",
    "element_year": "1898",
    "element_discovered_name": "Pierre and Marie Curie",
    "element_group": "Metalloids",
    "element_appearance": "Silvery",
    "element_electrons": "84",
    "element_protons": "84",
    "element_neutron_common": "126",

    "radioactive": "Yes",
    "neutron_cross_sectional": "0.03 (b)",

    "electrical_type": "Conductor",
    "resistivity": "4.3",
    "resistivity_mult": "0.0000001",
    "magnetic_type": "---",
    "superconducting_point": "---",

    "element_atomic_number": "84",
    "element_atomicmass": "209 (u)",
    "element_density": "9.196 (g/cm^3)",
    "element_electronegativty": "2.0",
    "element_block": "p - block",
    "element_shells_electrons": "K2 L8 M18 N32 O18 P6 Q0 R0",
    "element_model": "https://upload.wikimedia.org/wikipedia/commons/thumb/3/3a/Electron_shell_084_Polonium_-_no_label.svg/800px-Electron_shell_084_Polonium_-_no_label.svg.png",

    "element_boiling_kelvin": "1235 (K)",
    "element_boiling_celsius": "962 (°C)",
    "element_boiling_fahrenheit": "1764 (°F)",
    "element_melting_kelvin": "527 (K)",
    "element_melting_celsius": "254 (°C)",
    "element_melting_fahrenheit": "489 (°F)",

    "element_electron_config": "4f^14, 5d^10, 6s^2, 6p^4",
    "element_ion_charge": "Po^2+, Po^4+",
    "element_ionization_energy1": "8.417 (eV)",
    "element_atomic_radius_e": "190 (pm)",
    "element_atomic_radius": "135 (pm)",
    "element_covalent_radius": "--- (pm)",
    "element_van_der_waals": "197 (pm)",

    "element_phase": "Solid",
    "element_fusion_heat": "13 (kJ/mol)",
    "element_specific_heat_capacity": "0.094 J/(g·K)",
    "element_vaporization_heat": "102.91 (kJ/mol)",

    "oxidation_state_neg": "2",
    "oxidation_state_pos": "2 4 5 6",

    "iso_1": "Po-207",
    "iso_mass_1": "206.981593",
    "iso_half_1": "5.80 (hours)",
    "iso_Z_1": "84",
    "iso_N_1": "123",
    "iso_A_1": "207",

    "iso_2": "Po-208",
    "iso_mass_2": "207.9812457",
    "iso_half_2": "2.898 (years)",
    "iso_Z_2": "84",
    "iso_N_2": "124",
    "iso_A_2": "208",

    "iso_3": "Po-209",
    "iso_mass_3": "208.9824304",
    "iso_half_3": "125.2 (years)",
    "iso_Z_3": "84",
    "iso_N_3": "125",
    "iso_A_3": "209",

    "iso_4": "Po-210",
    "iso_mass_4": "209.9828737",
    "iso_half_4": "138.376 (days)",
    "iso_Z_4": "84",
    "iso_N_4": "126",
    "iso_A_4": "210",

    "iso_5": "Po-211",
    "iso_mass_5": "210.9866532",
    "iso_half_5": "0.516 (s)",
    "iso_Z_5": "84",
    "iso_N_5": "127",
    "iso_A_5": "211",

    "iso_6": "Po-212",
    "iso_mass_6": "211.9888680",
    "iso_half_6": "299 (ns)",
    "iso_Z_6": "84",
    "iso_N_6": "128",
    "iso_A_6": "212",

    "iso_7": "Po-213",
    "iso_mass_7": "212.992857",
    "iso_half_7": "3.65 (μs)",
    "iso_Z_7": "84",
    "iso_N_7": "129",
    "iso_A_7": "213",

    "iso_8": "Po-214",
    "iso_mass_8": "213.9952014",
    "iso_half_8": "164.3 (μs)",
    "iso_Z_8": "84",
    "iso_N_8": "130",
    "iso_A_8": "214",

    "iso_9": "Po-215",
    "iso_mass_9": "214.9994200",
    "iso_half_9": "1.781 (ms)",
    "iso_Z_9": "84",
    "iso_N_9": "131",
    "iso_A_9": "215",

    "iso_10": "Po-216",
    "iso_mass_10": "216.0019150",
    "iso_half_10": "0.145 (s)",
    "iso_Z_10": "84",
    "iso_N_10": "132",
    "iso_A_10": "216"
  }
]