[
  {
    "wikilink": "https://en.wikipedia.org/wiki/Radon",
    "link": "http://images-of-elements.com/radon.jpg",
    "description": "Radon is a chemical element with the symbol Rn and atomic number 86. It is a radioactive, colorless, odorless, tasteless noble gas. It occurs naturally in minute quantities as an intermediate step in the normal radioactive decay chains through which thorium and uranium slowly decay into lead and various other short-lived radioactive elements. Radon itself is the immediate decay product of radium. Its most stable isotope, Rn-222, has a half-life of 3.8 days, making radon one of the rarest elements since it decays so quickly. Since thorium and uranium are two of the most common radioactive elements on Earth, and they have three isotopes with very long half-lives (on the order of several billion years) radon will be present on Earth long into the future in spite of its short half-life as it is continually being generated. The decay of radon produces many other short-lived nuclides known as radon daughters, ending at stable isotopes of lead.",

    "element": "Radon",
    "short": "Rn",
    "element_year": "Dale R. Corson",
    "element_discovered_name": "1940",
    "element_group": "Halogens",
    "element_appearance": "unknown, probably metallic",
    "element_electrons": "86",
    "element_protons": "86",
    "element_neutron_common": "136",

    "radioactive": "Yes",
    "neutron_cross_sectional": "0.72 (b)",

    "electrical_type": "---",
    "resistivity": "---",
    "resistivity_mult": "---",
    "magnetic_type": "---",
    "superconducting_point": "---",

    "element_atomic_number": "86",
    "element_atomicmass": "222 (u)",
    "element_density": "0.0098 (g/cm^3)",
    "element_electronegativty": "2.2",
    "element_block": "p - block",
    "element_shells_electrons": "K2 L8 M18 N32 O18 P8 Q0 R0",
    "element_model": "https://upload.wikimedia.org/wikipedia/commons/thumb/0/04/Electron_shell_086_Radon_-_no_label.svg/800px-Electron_shell_086_Radon_-_no_label.svg.png",

    "element_boiling_kelvin": "211.5 (K)",
    "element_boiling_celsius": "−61.7 (°C)",
    "element_boiling_fahrenheit": "−79.1 (°F)",
    "element_melting_kelvin": "202 (K)",
    "element_melting_celsius": "−71 (°C)",
    "element_melting_fahrenheit": "−96 (°F)",

    "element_electron_config": "4f^14, 5d^10, 6s^2, 6p^6",
    "element_ion_charge": "---",
    "element_ionization_energy1": "10.74850 (eV)",
    "element_atomic_radius_e": "--- (pm)",
    "element_atomic_radius": "120 (pm)",
    "element_covalent_radius": "220",
    "element_van_der_waals": "145 (pm)",

    "element_phase": "Gas",
    "element_fusion_heat": "3.247 (kJ/mol)",
    "element_specific_heat_capacity": "0.094 J/(g·K)",
    "element_vaporization_heat": "18.10 (kJ/mol)",

    "oxidation_state_neg": "",
    "oxidation_state_pos": "2 6",

    "iso_1": "Rn-220",
    "iso_mass_1": "220.0113940",
    "iso_half_1": "55.6 (s)",
    "iso_Z_1": "86",
    "iso_N_1": "134",
    "iso_A_1": "220",

    "iso_2": "Rn-221",
    "iso_mass_2": "221.015537",
    "iso_half_2": "25.7 (min)",
    "iso_Z_2": "86",
    "iso_N_2": "135",
    "iso_A_2": "221",

    "iso_3": "Rn-222",
    "iso_mass_3": "222.0175777",
    "iso_half_3": "3.8235 (days)",
    "iso_Z_3": "86",
    "iso_N_3": "136",
    "iso_A_3": "222",

    "iso_4": "Rn-223",
    "iso_mass_4": "223.02179",
    "iso_half_4": "24.3 (min)",
    "iso_Z_4": "86",
    "iso_N_4": "137",
    "iso_A_4": "223"
  }
]