[
  {
    "wikilink": "https://en.wikipedia.org/wiki/Silver",
    "link": "https://upload.wikimedia.org/wikipedia/commons/thumb/5/55/Silver_crystal.jpg/800px-Silver_crystal.jpg",
    "description": "Silver is a chemical element with the symbol Ag (from the Latin argentum, derived from the Proto-Indo-European h₂erǵ: \"shiny\" or \"white\") and atomic number 47. A soft, white, lustrous transition metal, it exhibits the highest electrical conductivity, thermal conductivity, and reflectivity of any metal. The metal is found in the Earth's crust in the pure, free elemental form (\"native silver\"), as an alloy with gold and other metals, and in minerals such as argentite and chlorargyrite. Most silver is produced as a byproduct of copper, gold, lead, and zinc refining.",

    "element": "Silver",
    "short": "Ag",
    "element_year": "Deep Antiquity",
    "element_discovered_name": "---",
    "element_group": "Transition Metals",
    "element_appearance": "Lustrous White Metal",
    "element_electrons": "47",
    "element_protons": "47",
    "element_neutron_common": "60",

    "radioactive": "No",
    "neutron_cross_sectional": "63.6 (b)",

    "electrical_type": "Conductor",
    "resistivity": "1.6",
    "resistivity_mult": "0.0000001",
    "magnetic_type": "Diamagnetic",
    "superconducting_point": "---",

    "element_atomic_number": "47",
    "element_atomicmass": "107.8682 (u)",
    "element_density": "10.5 (g/cm^3)",
    "element_electronegativty": "1.93",
    "element_block": "d - block",
    "element_shells_electrons": "K2 L8 18 N18 O1 P0 Q0 R0",
    "element_model": "https://upload.wikimedia.org/wikipedia/commons/thumb/2/22/Electron_shell_047_Silver_-_no_label.svg/800px-Electron_shell_047_Silver_-_no_label.svg.png",

    "element_boiling_kelvin": "2435 (K)",
    "element_boiling_celsius": "2162 (°C)",
    "element_boiling_fahrenheit": "3924 (°F)",
    "element_melting_kelvin": "1234.93 (K)",
    "element_melting_celsius": "961.78 (°C)",
    "element_melting_fahrenheit": "1763.2 (°F)",

    "element_electron_config": "4d^10 5s^1",
    "element_ion_charge": "Ag^+",
    "element_ionization_energy1": "7.5762 (eV)",
    "element_ionization_energy2": "21.49 (eV)",
    "element_ionization_energy3": "34.83 (eV)",
    "element_atomic_radius_e": "160 (pm)",
    "element_atomic_radius": "165 (pm)",
    "element_covalent_radius": "153 (pm)",
    "element_van_der_waals": "172",

    "element_phase": "Solid",
    "element_fusion_heat": "11.28 (kJ/mol)",
    "element_specific_heat_capacity": "0.235 J/(g·K)",
    "element_vaporization_heat": "258 (kJ/mol)",

    "oxidation_state_neg": "2 1",
    "oxidation_state_pos": "1 2 3",

    "iso_1": "Ag-93",
    "iso_mass_1": "92.94978",
    "iso_half_1": "5 (ms)",
    "decay_type_1": "p",
    "iso_Z_1": "47",
    "iso_N_1": "46",
    "iso_A_1": "93",

    "iso_2": "Ag-94",
    "iso_mass_2": "93.94278",
    "iso_half_2": "37 (ms)",
    "decay_type_2": "B+",
    "iso_Z_2": "47",
    "iso_N_2": "47",
    "iso_A_2": "94",

    "iso_3": "Ag-95",
    "iso_mass_3": "94.93548",
    "iso_half_3": "1.74 (s)",
    "decay_type_3": "B+",
    "iso_Z_3": "47",
    "iso_N_3": "48",
    "iso_A_3": "95",

    "iso_4": "Ag-96",
    "iso_mass_4": "95.93068",
    "iso_half_4": "4.45 (s)",
    "decay_type_4": "B+",
    "iso_Z_4": "47",
    "iso_N_4": "49",
    "iso_A_4": "96",

    "iso_5": "Ag-97",
    "iso_mass_5": "96.92397",
    "iso_half_5": "25.3 (s)",
    "decay_type_5": "B+",
    "iso_Z_5": "47",
    "iso_N_5": "50",
    "iso_A_5": "97",

    "iso_6": "Ag-98",
    "iso_mass_6": "97.92157",
    "iso_half_6": "47.5 (s)",
    "decay_type_6": "B+",
    "iso_Z_6": "47",
    "iso_N_6": "51",
    "iso_A_6": "98",

    "iso_7": "Ag-99",
    "iso_mass_7": "98.91760",
    "iso_half_7": "124 (s)",
    "decay_type_7": "B+",
    "iso_Z_7": "47",
    "iso_N_7": "52",
    "iso_A_7": "99",

    "iso_8": "Ag-100",
    "iso_mass_8": "99.91610",
    "iso_half_8": "2.01 (min)",
    "decay_type_8": "B+",
    "iso_Z_8": "47",
    "iso_N_8": "53",
    "iso_A_8": "100",

    "iso_9": "Ag-101",
    "iso_mass_9": "100.91280",
    "iso_half_9": "11.1 (min)",
    "decay_type_9": "B+",
    "iso_Z_9": "47",
    "iso_N_9": "54",
    "iso_A_9": "101",

    "iso_10": "Ag-102",
    "iso_mass_10": "101.91169",
    "iso_half_10": "12.9 (min)",
    "decay_type_10": "B+",
    "iso_Z_10": "47",
    "iso_N_10": "55",
    "iso_A_10": "102",

    "iso_11": "Ag-103",
    "iso_mass_11": "102.908973",
    "iso_half_11": "65.7 (min)",
    "decay_type_11": "B+",
    "iso_Z_11": "47",
    "iso_N_11": "56",
    "iso_A_11": "103",

    "iso_12": "Ag-104",
    "iso_mass_12": "103.908629",
    "iso_half_12": "69.2 (min)",
    "decay_type_12": "B+",
    "iso_Z_12": "47",
    "iso_N_12": "57",
    "iso_A_12": "104",

    "iso_13": "Ag-105",
    "iso_mass_13": "104.906529",
    "iso_half_13": "41.29 (days)",
    "decay_type_13": "B+",
    "iso_Z_13": "47",
    "iso_N_13": "58",
    "iso_A_13": "105",

    "iso_14": "Ag-106",
    "iso_mass_14": "105.906669",
    "iso_half_14": "23.96 (min)",
    "decay_type_14": "B+",
    "iso_Z_14": "47",
    "iso_N_14": "59",
    "iso_A_14": "106",

    "iso_15": "Ag-107",
    "iso_mass_15": "106.905097",
    "iso_half_15": "Stable",
    "decay_type_15": "stable",
    "iso_Z_15": "47",
    "iso_N_15": "60",
    "iso_A_15": "107",

    "iso_16": "Ag-108",
    "iso_mass_16": "107.905956",
    "iso_half_16": "2.37 (min)",
    "decay_type_16": "B-",
    "iso_Z_16": "47",
    "iso_N_16": "61",
    "iso_A_16": "108",

    "iso_17": "Ag-109",
    "iso_mass_17": "108.904752",
    "iso_half_17": "Stable",
    "decay_type_17": "stable",
    "iso_Z_17": "47",
    "iso_N_17": "62",
    "iso_A_17": "109",

    "iso_18": "Ag-110",
    "iso_mass_18": "109.906107",
    "iso_half_18": "24.6 (s)",
    "decay_type_18": "B-",
    "iso_Z_18": "47",
    "iso_N_18": "63",
    "iso_A_18": "110",

    "iso_19": "Ag-111",
    "iso_mass_19": "110.905291",
    "iso_half_19": "7.45 (days)",
    "decay_type_19": "B-",
    "iso_Z_19": "47",
    "iso_N_19": "64",
    "iso_A_19": "111",

    "iso_20": "Ag-112",
    "iso_mass_20": "111.907005",
    "iso_half_20": "3.130 (hours)",
    "decay_type_20": "B-",
    "iso_Z_20": "47",
    "iso_N_20": "65",
    "iso_A_20": "112",

    "iso_21": "Ag-113",
    "iso_mass_21": "112.906567",
    "iso_half_21": "5.37 (hours)",
    "decay_type_21": "B-",
    "iso_Z_21": "47",
    "iso_N_21": "66",
    "iso_A_21": "113",

    "iso_22": "Ag-114",
    "iso_mass_22": "113.908804",
    "iso_half_22": "4.6 (s)",
    "decay_type_22": "B-",
    "iso_Z_22": "47",
    "iso_N_22": "67",
    "iso_A_22": "114",

    "iso_23": "Ag-115",
    "iso_mass_23": "114.90876",
    "iso_half_23": "20.0 (min)",
    "decay_type_23": "B-",
    "iso_Z_23": "47",
    "iso_N_23": "68",
    "iso_A_23": "115",

    "iso_24": "Ag-116",
    "iso_mass_24": "115.91136",
    "iso_half_24": "20.0 (min)",
    "decay_type_24": "B-",
    "iso_Z_24": "47",
    "iso_N_24": "68",
    "iso_A_24": "115"
  }
]